# LAMMPS data file written by OVITO Basic 3.9.4

24 atoms
24 bonds
4 atom types
3 bond types

-12.457628299 37.0176282278 xlo xhi
-12.457628299 37.0176282278 ylo yhi
-12.457628299 37.0176282278 zlo zhi

Atoms  # full

1730 604 1 0.0 23.9773 18.8063 19.816
1731 604 2 0.0 23.2433 19.2909 19.4382
1732 604 2 0.0 24.5329 18.5899 19.0672
2173 757 1 0.0 22.4088 18.9984 21.9831
2174 757 2 0.0 22.1247 19.5925 22.6777
2175 757 2 0.0 21.6031 18.5784 21.682
3539 1231 1 0.0 26.3828 18.0636 22.5523
3540 1231 2 0.0 26.7399 17.7037 23.3642
3541 1231 2 0.0 27.1475 18.3885 22.0771
4491 1563 4 0.0 25.2386 17.1606 17.278
4815 1675 1 0.0 25.3946 16.8047 20.4887
4816 1675 2 0.0 25.5958 15.895 20.7083
4817 1675 2 0.0 25.7696 16.9296 19.6169
6510 2264 1 0.0 24.7561 20.1702 22.1064
6511 2264 2 0.0 25.5154 20.707 22.3334
6512 2264 2 0.0 24.0975 20.7988 21.8112
6733 2341 3 0.0 24.407 18.1602 21.7677
8652 3010 1 0.0 23.1145 16.5188 21.6906
8653 3010 2 0.0 23.1581 15.676 21.2389
8654 3010 2 0.0 22.2121 16.5764 22.0045
9762 3396 1 0.0 24.1936 18.0486 23.8994
9763 3396 2 0.0 24.5335 18.7021 24.5107
9764 3396 2 0.0 23.6007 17.5128 24.4262
11597 4033 4 0.0 22.4113 16.434 26.0066

Bonds

1 1 1730 1732
2 1 1730 1731
3 1 2173 2174
4 1 2173 2175
5 1 3539 3540
6 1 3539 3541
7 1 4815 4816
8 1 4815 4817
9 1 6510 6512
10 1 6510 6511
11 1 8652 8654
12 1 8652 8653
13 1 9762 9763
14 1 9762 9764
15 2 1730 6733
16 2 2173 6733
17 2 3539 6733
18 2 4815 6733
19 2 6510 6733
20 2 6733 9762
21 2 6733 8652
22 3 1732 4491
23 3 4491 4817
24 3 9764 11597
