ITEM: TIMESTEP
85250000
ITEM: NUMBER OF ATOMS
8
ITEM: BOX BOUNDS pp pp pp
-0.0080197471 26.288019747
-0.0080197471 26.288019747
-0.0080197471 26.288019747
ITEM: ATOMS id type x y z
1 3 23.0038 12.9096 8.37975
194 1 23.2884 11.937 10.1243
278 1 21.3245 11.8844 8.03141
281 1 24.6569 14.0458 8.70202
722 1 21.8717 14.3075 9.31229
935 1 22.6683 13.9484 6.66404
1013 1 25.6194 13.2054 5.88947
1628 1 24.0358 11.5369 7.38229
