ITEM: TIMESTEP
34850000
ITEM: NUMBER OF ATOMS
4
ITEM: BOX BOUNDS pp pp pp
-12.457628299 37.0176282278
-12.457628299 37.0176282278
-12.457628299 37.0176282278
ITEM: ATOMS id type mol x y z
5530 1 1924 26.6679 23.3139 22.8734
5531 2 1924 26.0598 22.5748 22.8577
5532 2 1924 26.7405 23.5454 23.7993
11785 4 4099 25.1689 20.8364 22.0004
