ITEM: TIMESTEP
8630000
ITEM: NUMBER OF ATOMS
6
ITEM: BOX BOUNDS pp pp pp
-0.0080197471 26.288019747
-0.0080197471 26.288019747
-0.0080197471 26.288019747
ITEM: ATOMS id type x y z
671 1 24.5455 12.8153 0.331244
809 1 22.2093 11.2861 0.816097
1169 1 22.6277 13.731 2.20747
1643 1 25.2463 12.7176 3.09896
1715 1 24.7832 10.2894 1.74371
1793 1 22.7976 11.2132 3.56159
