ITEM: TIMESTEP
150000
ITEM: NUMBER OF ATOMS
7
ITEM: BOX BOUNDS pp pp pp
-0.0080197471 26.288019747
-0.0080197471 26.288019747
-0.0080197471 26.288019747
ITEM: ATOMS id type x y z
89 1 2.09708 8.80024 19.3586
101 1 3.45063 6.94428 20.3915
671 1 3.95194 9.18616 17.5506
854 1 1.61626 7.31375 17.3175
1109 1 3.07049 5.31093 18.3866
1163 1 5.3669 6.95139 18.6418
1676 1 3.98733 6.91074 16.392
