ITEM: TIMESTEP
1000000
ITEM: NUMBER OF ATOMS
8
ITEM: BOX BOUNDS pp pp pp
-0.0080197471 26.288019747
-0.0080197471 26.288019747
-0.0080197471 26.288019747
ITEM: ATOMS id type x y z
1 3 24.1929 25.7235 15.8749
2 1 25.2168 0.401884 17.426
3 1 22.5634 26.0718 17.0527
4 1 22.967 24.2847 15.0883
5 1 24.3168 26.0771 13.7839
6 1 24.4078 24.1914 17.2999
7 1 26.1694 25.2191 15.4654
8 1 23.7971 1.52073 15.5597
