ITEM: TIMESTEP
0
ITEM: NUMBER OF ATOMS
1804
ITEM: BOX BOUNDS pp pp pp
-0.0080197471 26.288019747
-0.0080197471 26.288019747
-0.0080197471 26.288019747
ITEM: ATOMS id type x y z
1 3 3.59039 7.09502 20.3431
2 4 26.2218 9.24117 25.1689
3 4 0.0187182 11.7944 14.5795
4 4 8.45605 12.6151 14.1675
5 1 20.3404 9.99029 16.3487
6 2 19.9795 10.8243 16.0481
7 2 20.9557 10.2308 17.0413
8 1 16.593 21.2307 1.01101
9 2 16.8175 20.3979 0.595962
10 2 17.2077 21.3087 1.74057
11 1 24.0383 6.66862 12.476
12 2 23.8314 7.58592 12.6549
13 2 23.1855 6.24379 12.3842
14 1 14.0468 13.2442 11.2582
15 2 13.8194 13.9187 11.8982
16 2 14.9178 12.9472 11.5217
17 1 5.35922 5.0191 15.2331
18 2 6.1638 5.41209 14.8948
19 2 4.84585 4.81314 14.4519
20 1 3.27595 3.55447 22.9509
21 2 2.43417 3.37304 22.5329
22 2 3.68672 2.69517 23.0463
23 1 16.3141 13.0658 18.4123
24 2 16.3062 12.1133 18.3176
25 2 16.4743 13.213 19.3444
26 1 19.7326 19.0085 10.35
27 2 19.8758 19.9379 10.1715
28 2 20.4773 18.751 10.8935
29 1 19.1948 10.3176 21.6693
30 2 18.4188 10.8466 21.8542
31 2 19.5501 10.6869 20.8609
32 1 13.8882 21.0194 1.42332
33 2 13.522 21.0119 0.538966
34 2 14.8347 21.0735 1.29071
35 1 8.59741 13.9326 25.712
36 2 7.854 14.3766 26.12
37 2 9.02257 14.6101 25.1862
38 1 18.1938 5.81909 22.4663
39 2 18.5149 5.0198 22.0488
40 2 18.0995 6.44406 21.7474
41 1 7.71006 16.7793 6.66761
42 2 7.73273 15.8943 7.03144
43 2 8.3922 17.2523 7.14427
44 1 5.81457 1.97715 12.5349
45 2 5.60888 1.31615 11.8738
46 2 5.44919 1.62617 13.347
47 1 25.899 6.70533 15.4069
48 2 26.2574 6.1533 14.7119
49 2 26.0008 6.18457 16.2035
50 1 15.8085 16.3944 10.5327
51 2 15.283 15.8053 9.99135
52 2 16.7146 16.1586 10.334
53 1 21.3369 7.39966 21.1734
54 2 21.8321 7.11691 20.4046
55 2 20.4456 7.53064 20.8499
56 1 18.0593 2.25175 9.74643
57 2 17.2666 2.50029 10.2219
58 2 17.7544 2.0456 8.86279
59 1 3.95666 1.32255 18.3392
60 2 4.65777 0.724396 18.0806
61 2 4.22272 1.6464 19.1998
62 1 17.2872 15.7309 25.0673
63 2 16.809 16.3338 24.498
64 2 18.2065 15.8569 24.8321
65 1 4.3208 22.4608 0.218671
66 2 4.22519 22.8445 1.09037
67 2 3.80702 21.6539 0.253946
68 1 2.70139 11.5623 6.19069
69 2 3.05647 11.3511 5.32726
70 2 1.96647 10.9592 6.30208
71 1 7.255 20.0225 8.90062
72 2 7.26382 20.9557 9.1134
73 2 8.0742 19.8765 8.42752
74 1 25.8691 5.23261 1.95581
75 2 0.153367 5.80103 1.44952
76 2 25.4039 4.7168 1.29719
77 1 14.3194 0.996074 9.77885
78 2 13.5683 0.462632 10.0389
79 2 15.0619 0.392433 9.80164
80 1 2.31949 12.7092 2.41571
81 2 2.82257 13.4979 2.61865
82 2 2.83268 11.9939 2.79144
83 1 9.1593 12.8594 8.67273
84 2 9.99485 12.4297 8.85545
85 2 8.61752 12.6659 9.43774
86 1 3.95717 10.9278 18.3013
87 2 4.09404 11.3187 19.1643
88 2 3.19725 11.3893 17.9466
89 1 3.94328 6.09165 22.2254
90 2 4.70407 6.36333 22.7388
91 2 3.82369 5.1675 22.4442
92 1 15.9666 6.20106 9.9916
93 2 15.9584 7.13473 10.2024
94 2 16.8951 5.97274 9.94891
95 1 22.0324 18.4465 11.8792
96 2 22.5417 17.9796 11.2167
97 2 21.8959 17.803 12.5745
98 1 1.65811 23.1761 25.2636
99 2 1.26654 23.2359 26.135
100 2 1.86549 24.0812 25.0311
101 1 4.98077 5.45582 19.9904
102 2 5.81319 5.54522 19.5264
103 2 5.03688 4.6032 20.4218
104 1 3.99343 7.61448 12.9983
105 2 3.49275 8.37494 13.2937
106 2 4.86824 7.95851 12.8178
107 1 19.8579 15.8852 24.1267
108 2 20.2046 15.8508 25.0183
109 2 20.5568 16.2899 23.6129
110 1 16.7903 4.39784 4.23491
111 2 16.0285 4.40267 3.6553
112 2 17.3044 5.15766 3.96185
113 1 11.4653 9.66628 21.1798
114 2 11.9533 9.93319 20.4007
115 2 10.6368 10.1418 21.1186
116 1 9.53414 22.7058 9.71734
117 2 8.6026 22.92 9.76828
118 2 9.92554 23.446 9.25349
119 1 1.41692 0.363482 16.8945
120 2 0.742592 0.358747 17.5738
121 2 2.21854 0.613828 17.3538
122 1 13.3595 22.9825 19.3052
123 2 13.1662 23.2576 20.2014
124 2 14.2875 22.7484 19.3209
125 1 2.3663 18.8525 17.8185
126 2 2.37563 19.7066 18.2504
127 2 2.35198 18.2203 18.5371
128 1 2.77935 12.2489 12.1153
129 2 2.30179 12.0537 11.309
130 2 2.12528 12.6436 12.692
131 1 15.6622 23.4401 8.07079
132 2 14.7991 23.1535 8.36932
133 2 16.2074 22.6551 8.12406
134 1 9.32849 2.24456 18.7058
135 2 10.1693 1.96404 18.3445
136 2 9.10897 1.57328 19.3519
137 1 5.34387 0.0765741 10.5656
138 2 5.93513 0.534588 9.9682
139 2 5.71679 25.4947 10.6462
140 1 12.6508 22.9706 14.5015
141 2 12.8072 23.5554 13.76
142 2 11.7909 22.5876 14.3279
143 1 4.90097 20.1031 4.80588
144 2 4.1187 19.9991 4.26415
145 2 5.28604 20.9298 4.5151
146 1 22.6076 2.33589 25.8654
147 2 22.359 2.17831 0.48016
148 2 22.2128 1.61145 25.3801
149 1 14.1364 2.87037 13.4016
150 2 14.8403 2.80128 12.7566
151 2 13.6857 2.02713 13.3562
152 1 2.50685 9.97168 13.5594
153 2 1.797 10.4407 13.998
154 2 2.79841 10.568 12.8698
155 1 19.959 21.7778 16.2947
156 2 19.1018 21.6888 16.7114
157 2 20.3084 22.6003 16.6378
158 1 18.1621 15.9296 18.3866
159 2 17.9524 15.4709 19.2001
160 2 17.4504 15.6977 17.7899
161 1 12.8558 22.3697 8.16622
162 2 11.9597 22.6425 7.96915
163 2 12.7628 21.7351 8.87679
164 1 18.3559 7.3643 7.72333
165 2 18.912 6.74417 7.25177
166 2 18.2527 8.10063 7.12049
167 1 3.01681 16.941 20.4174
168 2 3.31489 16.1301 20.0052
169 2 2.35396 16.66 21.0482
170 1 24.5222 18.0831 20.5036
171 2 24.945 18.9214 20.3172
172 2 23.9122 17.9552 19.7771
173 1 23.7645 20.5002 12.8688
174 2 23.2753 20.084 12.159
175 2 23.0991 20.9575 13.383
176 1 9.78546 7.69337 1.67432
177 2 9.98124 8.61029 1.8671
178 2 9.53015 7.31999 2.5179
179 1 24.7164 20.573 9.37851
180 2 24.4199 21.4721 9.51935
181 2 25.4343 20.6526 8.7504
182 1 3.18256 4.8301 13.3193
183 2 2.78187 4.53586 12.5013
184 2 3.18422 5.78519 13.2558
185 1 18.8544 6.21189 3.08272
186 2 18.9757 6.20096 2.13329
187 2 18.1453 6.83848 3.22691
188 1 8.2704 12.0566 18.6995
189 2 7.57223 11.5548 18.2788
190 2 8.715 12.501 17.9776
191 1 12.4858 2.55285 22.214
192 2 12.2558 1.62882 22.3114
193 2 12.47 2.70585 21.2693
194 1 20.6567 1.74869 22.4741
195 2 21.0019 1.67815 23.3641
196 2 20.6206 0.845751 22.1585
197 1 25.7104 4.17833 6.84725
198 2 25.472 4.19411 7.77415
199 2 0.190598 4.73545 6.78957
200 1 2.29815 14.3765 6.1228
201 2 3.18861 14.2588 5.79195
202 2 1.90183 13.5075 6.0596
203 1 24.1536 8.7896 22.69
204 2 23.3131 9.19032 22.9118
205 2 24.7521 9.09382 23.3722
206 1 21.5587 2.78364 19.9631
207 2 20.9344 3.50756 20.0127
208 2 21.5507 2.39934 20.8398
209 1 7.58892 12.4204 23.3158
210 2 8.0553 12.6737 24.1123
211 2 7.18195 13.2303 23.0081
212 1 15.7402 19.0825 8.86521
213 2 15.7121 18.3271 9.45239
214 2 15.7958 18.7029 7.98826
215 1 11.8821 18.6035 14.616
216 2 12.3643 18.9744 15.3551
217 2 12.4797 17.9575 14.2394
218 1 21.7477 11.595 13.4189
219 2 21.1271 12.0403 13.9958
220 2 21.2249 10.9292 12.9722
221 1 4.31831 12.6535 14.9193
222 2 4.12305 11.7507 14.6679
223 2 4.66087 13.056 14.1213
224 1 13.7019 16.2904 15.9912
225 2 12.7611 16.3402 16.1606
226 2 13.7718 16.2416 15.0379
227 1 18.3621 23.1289 26.0372
228 2 18.6455 22.7235 25.2178
229 2 17.7201 22.5174 0.101991
230 1 2.886 14.8178 16.4478
231 2 3.34127 14.1139 15.9858
232 2 3.461 15.5773 16.3544
233 1 9.91444 12.1261 5.06938
234 2 9.20061 11.6954 5.5396
235 2 9.69869 13.058 5.10699
236 1 1.55897 11.4358 9.72711
237 2 0.630659 11.5594 9.92506
238 2 1.57997 10.6842 9.1347
239 1 19.7941 17.9349 2.36257
240 2 20.6939 18.2236 2.51516
241 2 19.5104 17.5784 3.20441
242 1 6.28551 14.0157 17.9005
243 2 5.99954 13.3678 17.2566
244 2 7.14092 13.7016 18.1935
245 1 10.1753 7.85794 18.8804
246 2 10.4222 8.2076 19.7366
247 2 10.449 6.94112 18.9076
248 1 9.1774 6.27707 4.25316
249 2 9.48599 5.38621 4.41857
250 2 8.22772 6.22609 4.3615
251 1 19.8612 23.3247 12.3616
252 2 19.6211 22.7924 11.6031
253 2 19.3165 22.9881 13.0731
254 1 2.26216 19.3877 7.67293
255 2 1.84816 18.58 7.36868
256 2 3.15986 19.3355 7.34484
257 1 15.5116 19.8487 12.916
258 2 16.4193 19.5511 12.977
259 2 14.9934 19.0442 12.9368
260 1 3.08537 25.5181 11.8671
261 2 3.73529 26.0583 11.4177
262 2 3.09328 25.8347 12.7704
263 1 22.114 13.1633 23.6823
264 2 22.6858 13.8428 24.0395
265 2 21.4326 13.0503 24.3449
266 1 14.0571 9.11947 16.4566
267 2 13.1272 9.25508 16.6387
268 2 14.1379 9.24858 15.5115
269 1 23.6703 6.08226 22.623
270 2 22.7683 5.99012 22.3162
271 2 23.8882 6.99922 22.4558
272 1 25.2987 20.7065 19.6259
273 2 25.863 20.8941 18.8759
274 2 24.453 21.0888 19.3915
275 1 22.3193 19.7537 8.06125
276 2 22.1539 18.8566 7.7713
277 2 23.1978 19.7252 8.44027
278 1 24.169 1.5517 22.8475
279 2 23.8059 0.738022 22.4977
280 2 23.6313 2.24129 22.4582
281 1 2.29489 24.2981 5.11342
282 2 1.70298 24.6431 4.44498
283 2 2.94716 24.9879 5.23559
284 1 11.078 18.0977 3.3328
285 2 10.3769 17.4546 3.227
286 2 11.8788 17.575 3.37409
287 1 13.3189 11.0236 19.5538
288 2 13.5105 11.8605 19.9771
289 2 14.1617 10.5707 19.5254
290 1 4.82109 7.95061 16.1381
291 2 5.12649 8.5575 15.4639
292 2 4.84928 7.09104 15.7179
293 1 21.5604 10.2812 23.3444
294 2 21.6583 11.2325 23.3857
295 2 20.7721 10.1435 22.8193
296 1 24.1319 3.44717 4.67179
297 2 24.6976 3.68039 5.40785
298 2 23.7565 4.2795 4.3845
299 1 0.405008 3.23996 24.0951
300 2 26.2092 3.34903 24.909
301 2 26.2206 2.56712 23.6127
302 1 7.06977 0.826282 26.2019
303 2 7.19631 0.570876 0.819674
304 2 7.65613 1.57264 26.078
305 1 0.473192 25.6789 3.32204
306 2 25.8202 25.7958 3.2788
307 2 0.826911 0.0907759 2.7835
308 1 13.7184 18.2035 6.26387
309 2 13.5489 17.7263 5.45159
310 2 13.4876 19.1103 6.06218
311 1 7.62221 8.77929 18.6826
312 2 7.59507 9.56354 18.1344
313 2 8.55509 8.59361 18.7898
314 1 23.5031 24.0114 24.57
315 2 23.6916 23.6886 25.4512
316 2 24.2832 24.509 24.3247
317 1 15.6068 10.0376 26.1974
318 2 15.8789 9.27243 0.408059
319 2 14.8655 9.72907 25.6763
320 1 0.892707 1.56783 6.51745
321 2 0.470411 2.41945 6.62987
322 2 1.10095 1.28385 7.40752
323 1 18.043 8.66912 0.748849
324 2 17.886 9.34746 1.4057
325 2 18.8089 8.97697 0.264267
326 1 8.9572 0.785162 12.6786
327 2 9.10842 26.1679 12.9221
328 2 8.03298 0.936425 12.8765
329 1 2.88601 7.66492 6.13193
330 2 2.63388 6.76113 6.3212
331 2 2.7504 8.12983 6.95759
332 1 16.9585 9.04128 13.2637
333 2 17.2984 9.87379 13.5918
334 2 17.2825 8.98749 12.3646
335 1 0.557173 14.0448 19.5008
336 2 0.403086 14.6749 18.7968
337 2 0.631179 14.5807 20.2905
338 1 17.6113 11.1012 24.7909
339 2 16.9488 10.5751 25.2387
340 2 17.2034 11.3441 23.9597
341 1 20.7749 15.9092 0.624853
342 2 20.3654 16.5733 1.17933
343 2 21.6587 16.2407 0.466283
344 1 10.9342 20.3037 1.5479
345 2 10.9028 19.5528 2.1407
346 2 11.8666 20.4337 1.37448
347 1 1.0765 6.0888 23.8408
348 2 0.729222 5.26563 24.1843
349 2 0.522621 6.76463 24.2315
350 1 14.2726 25.7218 18.4524
351 2 14.9229 25.3023 17.8891
352 2 13.6578 25.0217 18.6719
353 1 12.9032 0.464503 26.2186
354 2 13.2334 1.35393 26.0915
355 2 13.5899 0.0226742 0.421969
356 1 1.48514 15.3493 0.689036
357 2 0.631257 15.4607 1.10703
358 2 2.0604 15.0518 1.39387
359 1 6.5562 7.71504 21.5706
360 2 6.64794 8.63621 21.814
361 2 7.37043 7.30681 21.8649
362 1 6.78545 15.3969 14.5233
363 2 7.40592 16.0784 14.7817
364 2 7.27681 14.5799 14.6092
365 1 12.3268 11.8704 17.0481
366 2 11.8596 11.1217 16.6772
367 2 12.7679 11.5188 17.8215
368 1 1.17319 17.12 5.764
369 2 0.251457 16.9257 5.93399
370 2 1.62595 16.2913 5.92054
371 1 14.5 4.37572 2.58983
372 2 14.0179 4.10594 3.37155
373 2 14.9592 3.58517 2.3063
374 1 23.2467 1.50446 9.3275
375 2 23.8171 0.744695 9.21077
376 2 22.3779 1.13158 9.47705
377 1 6.36389 10.8358 17.1924
378 2 6.27126 10.8311 16.2397
379 2 5.46774 10.7639 17.521
380 1 7.31253 4.68692 6.62868
381 2 7.09987 3.84331 6.22952
382 2 7.09328 5.33242 5.95675
383 1 11.187 8.65266 10.2664
384 2 10.919 8.9025 11.1507
385 2 10.5827 9.12164 9.69099
386 1 4.81798 14.0274 5.1847
387 2 5.3262 14.3611 5.924
388 2 5.29021 13.2438 4.90304
389 1 9.36042 23.873 20.0396
390 2 9.0213 23.3894 19.2864
391 2 8.78761 24.6365 20.1122
392 1 9.87129 15.9466 24.0297
393 2 9.13619 15.7409 23.4521
394 2 9.61917 16.7653 24.4567
395 1 22.4726 10.2095 3.45911
396 2 22.1901 10.7774 4.17597
397 2 22.555 10.7955 2.70682
398 1 10.5893 14.6231 12.7084
399 2 10.9808 13.9271 12.1807
400 2 9.99904 14.1665 13.3079
401 1 4.50405 25.8306 5.43991
402 2 4.15536 25.936 6.32508
403 2 5.1772 25.1555 5.52599
404 1 16.4695 17.2342 22.3701
405 2 16.1744 17.5484 21.5155
406 2 17.425 17.2554 22.3168
407 1 6.42221 19.2671 15.8208
408 2 5.86198 18.505 15.6742
409 2 5.87361 20.0164 15.5889
410 1 8.48831 5.97743 22.5913
411 2 8.85163 5.40818 21.9129
412 2 9.22602 6.52015 22.8696
413 1 1.91431 21.532 2.92646
414 2 1.16917 21.4915 3.52592
415 2 1.80023 20.7762 2.3504
416 1 6.44564 23.969 6.19962
417 2 7.28433 23.627 5.89006
418 2 5.88036 23.199 6.26104
419 1 6.49904 6.83192 4.75948
420 2 6.49894 7.61918 5.30396
421 2 6.0399 7.09233 3.96097
422 1 20.3589 25.6776 20.7554
423 2 20.0861 24.7642 20.8428
424 2 19.5395 26.1667 20.6809
425 1 1.51888 4.17289 10.9015
426 2 1.66101 3.30657 10.52
427 2 0.856822 4.57656 10.3402
428 1 14.2656 14.7016 8.89881
429 2 14.2343 14.0682 9.61581
430 2 13.4786 15.2341 9.01445
431 1 9.74223 18.7209 7.67545
432 2 10.5196 18.9789 8.17087
433 2 9.7974 19.2242 6.86311
434 1 3.91743 8.62534 21.6392
435 2 3.24914 9.18529 22.0343
436 2 4.73451 9.11119 21.7513
437 1 1.19272 22.2328 21.1124
438 2 1.14248 21.8238 20.2484
439 2 1.76154 22.9921 20.9857
440 1 12.7428 4.82489 0.123485
441 2 13.0162 4.82666 1.0408
442 2 13.1904 4.07013 26.0371
443 1 16.8877 19.8038 4.7466
444 2 17.0923 20.6243 5.19526
445 2 16.7955 19.1619 5.45058
446 1 6.95194 13.3141 3.33595
447 2 6.92995 12.6595 2.63799
448 2 7.83182 13.6878 3.28685
449 1 9.741 24.2142 12.3485
450 2 9.79599 23.716 11.533
451 2 9.61786 23.5506 13.0273
452 1 5.88438 23.8899 12.2687
453 2 5.18821 23.2687 12.4824
454 2 6.67666 23.355 12.2198
455 1 7.28112 2.54605 16.9072
456 2 7.87371 2.53791 17.6589
457 2 6.84079 3.39444 16.9579
458 1 2.28472 14.0466 9.22131
459 2 1.92053 13.1619 9.19371
460 2 2.66447 14.1771 8.3524
461 1 9.51696 6.61805 11.1305
462 2 10.4123 6.82838 10.8654
463 2 9.03939 6.52024 10.3068
464 1 18.6818 9.66839 6.15401
465 2 18.9796 9.25196 5.34523
466 2 19.4738 9.75671 6.6842
467 1 0.783702 14.9368 14.6876
468 2 0.411649 14.055 14.7015
469 2 1.50859 14.9013 15.3117
470 1 12.7696 7.08258 13.1439
471 2 13.1505 6.66289 13.9152
472 2 12.7213 6.38488 12.4903
473 1 13.2365 14.9356 13.346
474 2 12.2951 15.0807 13.2505
475 2 13.3052 14.1938 13.947
476 1 7.74595 6.03824 13.8253
477 2 8.38908 5.3985 14.1308
478 2 7.33552 5.62259 13.067
479 1 5.86338 4.7008 9.22786
480 2 4.93215 4.6697 9.00859
481 2 6.30073 4.87203 8.39381
482 1 1.89421 23.9229 16.6378
483 2 1.3581 23.7763 15.8585
484 2 1.71357 24.8294 16.8864
485 1 17.6802 12.1851 8.62196
486 2 17.9311 12.2452 7.70018
487 2 16.8678 11.679 8.61707
488 1 20.6422 24.4773 17.1151
489 2 21.3348 25.0208 17.4909
490 2 19.8651 25.036 17.1279
491 1 5.26514 11.2947 7.34801
492 2 5.42988 11.8063 8.14005
493 2 4.42834 11.6236 7.0196
494 1 22.1181 2.02739 6.50962
495 2 22.7517 2.4569 5.93495
496 2 22.6499 1.47657 7.08407
497 1 12.4381 16.5943 22.7686
498 2 11.6332 16.2816 23.1815
499 2 12.961 15.8041 22.633
500 1 13.8881 9.95457 10.5061
501 2 13.8563 9.90406 11.4614
502 2 13.0606 9.56939 10.2177
503 1 4.54246 0.111897 1.84185
504 2 4.55789 25.5163 2.18955
505 2 5.18313 0.586964 2.37108
506 1 15.3099 2.72166 21.0374
507 2 15.468 3.42119 21.6713
508 2 15.5553 1.91969 21.4987
509 1 24.3827 6.60545 25.3257
510 2 24.915 7.39617 25.2379
511 2 24.0089 6.46993 24.455
512 1 22.6861 17.4579 18.3836
513 2 21.8999 17.8899 18.0498
514 2 22.8437 16.7396 17.7709
515 1 1.8636 19.0389 10.3703
516 2 1.7213 18.1028 10.5106
517 2 2.15259 19.1039 9.46005
518 1 19.4579 12.4263 15.3828
519 2 19.421 13.1764 15.9762
520 2 18.5565 12.3148 15.0807
521 1 19.8735 4.53051 15.7988
522 2 19.3605 5.28206 16.096
523 2 20.4735 4.34843 16.522
524 1 10.2514 3.64007 4.43931
525 2 10.8077 3.02114 3.96635
526 2 9.85619 3.12084 5.13962
527 1 8.54242 3.30609 9.71962
528 2 9.08534 3.99713 9.34021
529 2 7.85806 3.77403 10.1981
530 1 11.373 23.3864 17.0752
531 2 11.9659 23.1248 17.7797
532 2 11.9301 23.4349 16.2983
533 1 9.23579 5.81137 8.46036
534 2 9.67412 6.47215 7.9242
535 2 8.62629 5.38133 7.86051
536 1 8.55206 19.0963 12.501
537 2 8.87319 18.3192 12.0435
538 2 8.77336 18.9427 13.4195
539 1 15.862 13.0359 4.88873
540 2 15.6637 13.3015 3.99078
541 2 15.1713 13.4374 5.41591
542 1 24.1959 0.660331 12.3265
543 2 23.3846 1.1569 12.2195
544 2 24.6238 1.06001 13.0837
545 1 13.6763 6.41049 22.014
546 2 13.1396 5.80896 22.5301
547 2 13.805 7.16768 22.5852
548 1 0.404644 2.09325 13.8155
549 2 0.469627 3.04792 13.84
550 2 0.398055 1.82945 14.7356
551 1 9.5064 0.59075 9.93802
552 2 9.28007 0.546342 10.867
553 2 9.36431 1.50691 9.69993
554 1 9.97894 15.2573 7.79813
555 2 10.2222 15.1614 6.87733
556 2 9.78966 14.3657 8.09047
557 1 7.86584 11.1396 6.3738
558 2 8.42395 10.9474 7.12734
559 2 7.00347 11.3121 6.75165
560 1 12.4364 24.6 5.40089
561 2 12.0161 24.8815 4.58823
562 2 12.5729 25.4095 5.89326
563 1 5.08276 19.5415 10.7654
564 2 6.03035 19.5308 10.6305
565 2 4.81564 18.6279 10.664
566 1 16.8125 20.5484 23.5734
567 2 17.4547 20.1586 24.1666
568 2 16.8883 20.0368 22.7679
569 1 12.2534 2.22718 16.4885
570 2 12.184 3.18181 16.4985
571 2 12.5156 1.99629 17.3797
572 1 16.9167 11.9048 14.2869
573 2 16.9818 12.4027 13.472
574 2 16.1541 12.273 14.7329
575 1 0.126617 10.4437 6.33594
576 2 26.1102 9.80497 5.69517
577 2 25.6604 10.9931 6.51845
578 1 4.16593 7.99773 10.2671
579 2 5.01337 8.32043 9.96057
580 2 4.23001 8.02432 11.2217
581 1 18.3546 25.9653 17.3913
582 2 18.1886 26.0679 18.3284
583 2 18.5035 0.56035 17.075
584 1 16.4959 11.58 22.2007
585 2 15.6098 11.2606 22.0302
586 2 16.4693 12.5046 21.9547
587 1 5.18577 21.1507 7.30562
588 2 5.76629 20.6468 7.876
589 2 5.04999 20.5875 6.54359
590 1 5.56029 2.33226 4.03516
591 2 4.83558 2.18837 4.6437
592 2 5.24207 3.01016 3.43899
593 1 7.55927 25.8113 23.3865
594 2 7.49021 0.283402 23.9534
595 2 7.21455 25.0914 23.9148
596 1 6.37737 17.7087 18.4764
597 2 6.72759 18.2536 17.7716
598 2 5.6313 17.2568 18.0822
599 1 19.3855 25.8216 26.1327
600 2 18.7774 25.0898 26.2364
601 2 19.7615 25.9467 0.707987
602 1 14.5654 22.5915 22.8263
603 2 14.8404 23.2357 23.4787
604 2 15.168 21.8574 22.945
605 1 12.1074 4.4315 11.9683
606 2 11.2544 4.04961 12.1752
607 2 12.7358 3.88539 12.4407
608 1 12.9765 10.096 4.4389
609 2 12.1512 9.87665 4.00658
610 2 12.7734 10.8686 4.96622
611 1 20.4608 14.5855 5.60318
612 2 20.5103 14.5625 4.64753
613 2 19.6401 14.1393 5.8118
614 1 21.6968 26.1926 24.5478
615 2 22.3741 25.5243 24.4433
616 2 20.9216 25.7067 24.8291
617 1 14.0152 5.12085 14.9833
618 2 14.1291 4.31112 14.4857
619 2 14.8766 5.53784 14.9634
620 1 12.9306 18.141 20.4999
621 2 13.3668 17.4441 20.0098
622 2 12.7723 17.7632 21.365
623 1 10.0484 4.37805 0.411089
624 2 9.67053 3.88429 1.13885
625 2 10.9571 4.53046 0.670664
626 1 14.3013 19.0451 3.49301
627 2 14.8372 19.3971 4.20377
628 2 14.1629 19.7884 2.90604
629 1 17.0028 18.4522 26.2684
630 2 17.2275 17.5428 0.169564
631 2 16.1555 18.3996 25.8262
632 1 24.5119 25.756 15.4624
633 2 24.5973 0.3444 15.8184
634 2 23.5905 25.6859 15.2125
635 1 20.728 9.55741 11.7435
636 2 21.2374 9.15297 11.0413
637 2 20.5048 8.83185 12.3266
638 1 6.94405 14.2393 7.45422
639 2 7.7907 13.8575 7.68582
640 2 6.37751 14.0362 8.19853
641 1 11.4966 3.51889 9.25483
642 2 12.1186 4.16585 8.92187
643 2 11.6703 3.48088 10.1954
644 1 2.87618 8.33104 2.95978
645 2 2.27458 8.17859 2.23104
646 2 2.46628 7.8922 3.70519
647 1 16.3819 22.233 19.4542
648 2 17.1746 22.6554 19.785
649 2 16.6029 21.9755 18.5591
650 1 23.694 4.09561 14.4247
651 2 22.9424 4.53668 14.0286
652 2 24.4557 4.50005 14.0095
653 1 24.1224 23.1659 9.70485
654 2 24.4613 23.9772 9.32632
655 2 23.5401 23.454 10.4078
656 1 3.69667 3.87765 17.4745
657 2 4.30889 4.10191 16.7737
658 2 3.8527 2.94806 17.6411
659 1 9.37387 26.0059 6.33069
660 2 9.98919 0.393865 6.59492
661 2 9.78472 25.5941 5.57052
662 1 11.0265 9.43131 16.4816
663 2 10.6853 8.85965 17.1694
664 2 10.6788 9.06325 15.6693
665 1 14.8668 3.75789 6.86535
666 2 14.4142 4.07908 7.64523
667 2 15.4826 4.45548 6.64088
668 1 17.6835 3.48471 19.2475
669 2 16.8661 3.95221 19.4192
670 2 17.5751 3.12746 18.3661
671 1 2.48244 8.67501 19.4368
672 2 2.94614 9.2812 18.8591
673 2 1.55654 8.8159 19.2391
674 1 18.9857 16.8614 21.1281
675 2 19.8758 16.5837 20.9118
676 2 18.8107 17.5908 20.5334
677 1 25.1526 9.32016 4.04471
678 2 25.5337 10.0585 3.56949
679 2 24.2097 9.48356 4.02582
680 1 22.6103 24.1498 11.8199
681 2 22.7429 24.9859 12.2665
682 2 21.6692 23.9884 11.8869
683 1 3.53318 6.41318 25.9722
684 2 3.75468 5.54928 0.0237796
685 2 2.87764 6.23921 25.2967
686 1 22.2564 18.7939 2.68763
687 2 22.591 19.5797 3.11987
688 2 22.2015 19.0338 1.7626
689 1 4.80854 1.28488 23.9059
690 2 5.3858 1.74988 24.5115
691 2 4.45687 0.557992 24.4199
692 1 4.26698 22.57 23.5616
693 2 5.0502 22.9334 23.9749
694 2 3.6342 22.4901 24.2754
695 1 5.32766 19.9269 20.2059
696 2 5.77022 19.8731 21.053
697 2 5.65118 19.1698 19.7176
698 1 23.6268 13.4038 14.9394
699 2 23.0971 12.6489 14.6828
700 2 24.5307 13.0951 14.8769
701 1 13.7214 16.3392 2.05172
702 2 13.1333 16.6933 1.38463
703 2 14.4132 16.9955 2.13463
704 1 22.722 5.24885 16.8878
705 2 22.5193 6.05368 16.4109
706 2 23.3266 4.77659 16.3154
707 1 26.0699 19.9237 26.192
708 2 25.6452 19.4759 0.627755
709 2 25.6014 20.7548 26.1149
710 1 22.1116 7.20417 1.38948
711 2 21.5136 7.92603 1.1957
712 2 22.7081 7.17922 0.641262
713 1 26.1773 13.7837 25.0697
714 2 0.642023 14.265 25.3952
715 2 0.247265 13.1333 24.4703
716 1 25.3271 16.6493 22.8442
717 2 25.0581 16.791 21.9365
718 2 25.7965 17.4486 23.0829
719 1 16.1239 13.197 25.1848
720 2 16.7898 12.517 25.2868
721 2 16.5915 14.0167 25.3447
722 1 18.6993 22.6612 23.2893
723 2 18.2971 21.7928 23.3066
724 2 19.6398 22.4893 23.2448
725 1 7.41508 8.17549 0.647526
726 2 7.52029 9.05056 0.274134
727 2 8.24652 8.00122 1.08862
728 1 15.4892 7.72485 23.7429
729 2 15.7886 7.2923 24.5426
730 2 16.2884 8.06435 23.3401
731 1 6.72433 22.6176 9.62597
732 2 5.77832 22.4785 9.67018
733 2 6.82653 23.4034 9.08902
734 1 9.15433 11.2163 21.2654
735 2 8.62009 11.6704 21.917
736 2 8.77433 11.4702 20.4244
737 1 25.2839 15.6571 2.07621
738 2 25.2912 16.3705 2.71437
739 2 25.011 14.8891 2.57801
740 1 7.61913 5.61884 25.9742
741 2 7.60566 6.44896 0.154607
742 2 8.42699 5.19173 26.2591
743 1 4.08912 14.9656 19.0285
744 2 4.91031 14.6498 18.6514
745 2 3.41642 14.684 18.4084
746 1 21.7034 17.2029 6.48291
747 2 22.1497 17.3825 5.65535
748 2 21.5875 16.2528 6.49175
749 1 15.4477 5.00394 18.2768
750 2 16.0391 5.36352 17.6156
751 2 15.1695 4.16153 17.9173
752 1 2.97485 19.2467 13.9732
753 2 2.31256 19.7754 13.5282
754 2 2.5441 18.9462 14.7735
755 1 13.9868 8.38236 6.54336
756 2 14.0016 8.89015 5.73209
757 2 14.6837 7.73536 6.43426
758 1 9.14647 16.6378 11.1658
759 2 9.62114 16.5675 10.3376
760 2 9.64418 16.0922 11.7748
761 1 12.2334 4.88135 20.0302
762 2 12.6834 5.62741 20.4266
763 2 12.6195 4.80429 19.1577
764 1 10.7888 20.6562 11.5065
765 2 10.0975 20.1408 11.9221
766 2 10.3489 21.1148 10.7907
767 1 1.88506 8.0227 16.6351
768 2 2.73967 8.09268 16.2097
769 2 1.2869 7.76991 15.9319
770 1 18.1443 2.38961 16.547
771 2 17.2863 2.56342 16.1599
772 2 18.717 3.05816 16.1712
773 1 19.9405 9.0392 3.65665
774 2 19.8358 8.09364 3.55098
775 2 20.8638 9.20148 3.46331
776 1 7.94266 20.7858 1.21734
777 2 7.63968 19.977 1.63
778 2 8.88452 20.8036 1.3871
779 1 18.6183 25.7728 11.3998
780 2 17.8766 25.5317 10.8449
781 2 18.8252 24.9737 11.8845
782 1 26.1395 5.04686 12.9268
783 2 0.314261 4.73854 12.1525
784 2 25.3461 5.45402 12.5789
785 1 18.0397 2.57142 23.8108
786 2 17.4945 1.78507 23.8358
787 2 18.8489 2.28891 23.3846
788 1 5.41406 15.6129 2.54443
789 2 5.63112 14.7728 2.94866
790 2 4.50239 15.7692 2.79067
791 1 7.12907 3.48085 22.6147
792 2 7.64108 3.01618 23.2767
793 2 7.38698 4.39754 22.7117
794 1 24.5953 26.2046 1.50637
795 2 24.0886 25.4238 1.7294
796 2 24.098 0.633594 1.88484
797 1 9.0285 23.4682 15.5076
798 2 8.92009 24.4104 15.3787
799 2 9.79325 23.3904 16.078
800 1 21.9769 7.87145 15.7279
801 2 21.4626 8.62615 16.0145
802 2 22.7759 8.25062 15.3617
803 1 6.57089 1.60913 8.36557
804 2 6.77495 1.54988 7.43225
805 2 7.00615 2.41065 8.65599
806 1 6.30509 25.6758 18.4158
807 2 5.7957 24.8826 18.2498
808 2 6.97052 25.682 17.7277
809 1 5.47375 22.7765 19.3894
810 2 5.4268 21.8703 19.694
811 2 4.84313 23.2461 19.9353
812 1 1.44466 1.04055 21.6854
813 2 0.811824 0.654549 21.0798
814 2 1.44177 0.453834 22.4417
815 1 4.83168 24.2058 16.1602
816 2 5.16442 23.3086 16.1358
817 2 3.90233 24.1115 16.3691
818 1 2.03223 8.87266 8.417
819 2 1.11982 8.60489 8.52669
820 2 2.46211 8.59751 9.22677
821 1 13.9086 2.63508 24.8739
822 2 14.6759 3.1609 24.648
823 2 13.398 2.59572 24.0652
824 1 7.59831 16.4631 4.09838
825 2 7.5739 16.6447 5.03788
826 2 6.72866 16.1169 3.89819
827 1 21.8714 17.436 22.571
828 2 21.927 16.8166 21.8433
829 2 22.6869 17.935 22.5243
830 1 14.9671 21.5699 15.2007
831 2 14.3813 22.2434 14.8549
832 2 15.3598 21.1717 14.4239
833 1 11.3708 12.6666 11.0285
834 2 12.3265 12.6578 11.0825
835 2 11.0922 11.9407 11.5868
836 1 2.15205 24.3211 9.52216
837 2 2.55573 24.7612 10.2702
838 2 2.39891 23.4018 9.6227
839 1 25.1064 16.6223 12.1671
840 2 25.1856 17.0085 13.0393
841 2 26.0044 16.4018 11.9198
842 1 20.0462 12.3089 25.6766
843 2 19.3387 11.8696 25.2048
844 2 19.6034 12.8075 0.0672297
845 1 21.5466 1.90945 12.2796
846 2 21.1554 1.35717 11.6027
847 2 21.1272 1.62667 13.0922
848 1 20.1862 11.6059 19.4323
849 2 21.1028 11.8301 19.5929
850 2 19.7673 12.4415 19.2262
851 1 7.52444 11.3227 1.22075
852 2 6.94498 11.2436 0.462991
853 2 8.37076 11.5736 0.850535
854 1 1.72743 6.81742 21.0927
855 2 1.43597 6.35774 21.8801
856 2 0.991303 6.74353 20.4854
857 1 9.68968 23.1179 23.1856
858 2 9.52512 23.8665 23.759
859 2 9.174 23.2994 22.3999
860 1 3.70762 23.8121 21.1112
861 2 3.93776 23.3675 21.927
862 2 3.87826 24.7376 21.2859
863 1 8.71004 19.547 20.6683
864 2 8.47805 20.0325 19.8767
865 2 9.35397 18.9026 20.3745
866 1 2.06257 1.22676 1.83556
867 2 2.91362 0.803578 1.94895
868 2 2.14827 1.724 1.02215
869 1 12.2097 11.6782 6.57915
870 2 11.9611 10.9541 7.15366
871 2 11.4048 11.9005 6.11125
872 1 15.4421 25.837 20.8775
873 2 15.0075 25.705 20.0349
874 2 15.8407 24.9899 21.0771
875 1 15.6482 4.61006 23.0797
876 2 15.3399 5.45394 22.7495
877 2 16.5298 4.7881 23.4071
878 1 16.3713 14.9025 16.1528
879 2 16.4805 14.2674 16.8607
880 2 15.4504 15.1591 16.2005
881 1 17.2453 22.2091 16.8534
882 2 16.5334 21.9081 16.2888
883 2 17.2039 23.1641 16.8032
884 1 17.3496 21.2073 8.50126
885 2 17.8774 20.8209 7.80247
886 2 16.7533 20.5072 8.76673
887 1 18.4991 4.96447 10.072
888 2 19.4168 5.02337 9.80642
889 2 18.2458 4.0655 9.86237
890 1 19.2454 17.0633 14.2674
891 2 18.5812 16.3742 14.2803
892 2 20.0783 16.5948 14.322
893 1 24.9835 9.2842 16.0673
894 2 25.3592 9.74884 15.3195
895 2 25.2179 8.36748 15.9226
896 1 10.479 13.6263 20.9234
897 2 10.0247 12.7872 20.847
898 2 9.87753 14.2612 20.5344
899 1 21.2438 6.02817 9.96126
900 2 21.7081 6.84953 9.79975
901 2 21.3639 5.86454 10.8967
902 1 23.1273 15.2282 16.7385
903 2 23.2175 14.8426 15.867
904 2 23.9881 15.1149 17.1414
905 1 23.2649 16.8699 0.405316
906 2 23.9332 16.7528 1.08056
907 2 23.5371 16.2889 25.991
908 1 26.1597 23.7261 14.7023
909 2 25.6249 24.5177 14.7622
910 2 25.9792 23.3801 13.8283
911 1 5.94342 10.5481 21.6811
912 2 5.62867 11.3169 21.2056
913 2 6.2335 10.8909 22.5264
914 1 7.7642 20.8219 24.8024
915 2 8.70927 20.7682 24.6603
916 2 7.6601 20.7558 25.7516
917 1 24.9342 7.72501 6.54595
918 2 25.2147 6.81369 6.46183
919 2 24.9848 8.07476 5.65637
920 1 23.6049 15.108 8.39188
921 2 22.6564 14.9857 8.43217
922 2 23.7638 15.9148 8.88183
923 1 9.60434 19.9889 17.5283
924 2 10.3725 20.0889 18.0905
925 2 9.0788 20.7706 17.6988
926 1 4.43298 18.9182 24.6303
927 2 3.66359 18.4136 24.3665
928 2 4.61986 19.4812 23.8791
929 1 10.0546 13.4264 16.8033
930 2 9.69886 13.2278 15.9371
931 2 10.7689 12.7998 16.9188
932 1 6.4971 9.73491 24.7096
933 2 6.14839 8.84774 24.6226
934 2 5.9088 10.1642 25.3308
935 1 21.3427 14.4819 2.84501
936 2 21.0028 15.0284 2.13648
937 2 21.5574 13.6495 2.42413
938 1 1.29405 7.11313 0.946583
939 2 0.876046 7.73931 0.35548
940 2 2.11732 6.88719 0.513674
941 1 17.1909 15.1538 7.76329
942 2 16.8261 14.3822 8.19661
943 2 17.8657 15.4699 8.36415
944 1 23.7684 17.5617 9.89214
945 2 24.207 18.3921 9.70715
946 2 24.1779 17.2483 10.6986
947 1 16.6706 6.45814 14.1032
948 2 16.8631 7.20647 13.5382
949 2 17.0549 5.70879 13.6481
950 1 16.8964 14.4215 20.9237
951 2 16.744 15.342 21.1376
952 2 17.6267 14.1623 21.4855
953 1 18.3045 4.66886 12.9712
954 2 18.5303 4.72263 12.0426
955 2 17.8986 3.8076 13.07
956 1 5.75536 14.4759 26.1542
957 2 5.07607 14.8342 25.5829
958 2 5.63879 14.9377 0.688436
959 1 25.9435 15.7935 17.2097
960 2 26.274 15.5337 16.3497
961 2 26.2239 16.7033 17.3097
962 1 0.208743 12.3128 22.4837
963 2 0.988416 11.7584 22.4522
964 2 26.0644 12.1553 21.6485
965 1 19.9178 22.9433 2.106
966 2 19.5673 23.2268 1.26158
967 2 19.4285 22.1473 2.3139
968 1 9.67955 3.47781 12.6365
969 2 9.57668 2.52615 12.6358
970 2 9.03332 3.78953 12.0029
971 1 23.4912 14.4512 12.4044
972 2 23.5827 14.0627 13.2744
973 2 24.0656 15.2167 12.4218
974 1 25.4919 22.5662 12.3297
975 2 25.2 23.1104 11.5984
976 2 24.8244 21.884 12.4027
977 1 15.9176 6.43748 6.47714
978 2 16.2246 6.35381 5.57435
979 2 16.7069 6.63425 6.98168
980 1 0.596271 18.7707 23.3041
981 2 0.102475 19.5764 23.457
982 2 1.35515 19.0481 22.7909
983 1 3.21104 5.4449 9.11844
984 2 2.5883 5.04038 9.72243
985 2 3.48489 6.24926 9.55918
986 1 15.145 0.699553 4.91788
987 2 15.5391 26.1278 4.82919
988 2 15.6762 1.13755 5.58285
989 1 24.1854 2.56195 19.4686
990 2 23.2661 2.81017 19.5667
991 2 24.405 2.80501 18.5692
992 1 2.6832 15.4847 3.33947
993 2 2.22409 16.3112 3.18998
994 2 2.48108 15.2587 4.24738
995 1 10.8544 12.881 23.5779
996 2 10.5396 11.9802 23.5017
997 2 10.7665 13.2414 22.6955
998 1 20.659 0.58356 9.97925
999 2 19.8923 0.152736 10.3571
1000 2 20.3201 1.40224 9.61712
1001 1 3.73258 25.8642 8.14712
1002 2 4.49589 26.0526 8.69311
1003 2 3.23872 25.2107 8.64232
1004 1 23.0901 23.8451 2.40734
1005 2 22.4971 23.6833 1.6736