LAMMPS data file via write_data, version 23 Jun 2022, timestep = 33910

22 atoms
3 atom types
14 bonds
1 bond types
7 angles
1 angle types

0 49.33432626528822 xlo xhi
0 49.33432626528822 ylo yhi
0 49.33432626528822 zlo zhi

Masses

1 15.9994
2 1.00794
3 55.843

Atoms # full

8342 2952 1 -1.18 36.7343285500832 15.805082428249944 11.086629791258499 0 0 0
8343 2952 2 0.59 36.42311309040363 15.643588419180906 11.979097603602776 0 0 0
8344 2952 2 0.59 36.05410732129863 15.430605904982857 10.52398399497177 0 0 0
51 51 3 3 38.42696274913853 16.764009687095914 10.516686156429556 0 0 0
6917 2477 1 -1.18 37.37057239991862 18.406447172374833 9.996027591193574 0 0 0
10241 3585 1 -1.18 38.19007969201973 16.032697680957266 8.638167525730115 0 0 0
10242 3585 2 0.59 37.70894541636604 16.42318428438547 7.9063654411247395 0 0 0
10243 3585 2 0.59 38.51940863415387 15.201195816143935 8.292188399800674 0 0 0
11081 3865 1 -1.18 39.50373043365811 15.110558020614386 10.99303831843 0 0 0
11082 3865 2 0.59 40.45634197190836 15.00206857199707 10.976423159486178 0 0 0
11083 3865 2 0.59 39.17238517802629 14.271094096010593 11.31712880777162 0 0 0
11231 3915 1 -1.18 40.13985268263638 17.685469079023026 9.942718782946919 0 0 0
11232 3915 2 0.59 40.60505528363792 18.382741787351947 10.408477785071748 0 0 0
11233 3915 2 0.59 40.63450966460097 17.56881602604723 9.129571745942819 0 0 0
6919 2477 2 0.59 36.72642309831763 18.759034469692825 10.613785789404877 0 0 0
6918 2477 2 0.59 37.406089603264306 19.054618432411818 9.290482060626687 0 0 0
4745 1753 1 -1.18 38.661258113509184 17.456429504288753 12.401508932555618 0 0 0
4746 1753 2 0.59 37.97766451360658 18.00206718615384 12.796217592205272 0 0 0
4747 1753 2 0.59 39.30829273499813 17.340250287339586 13.099429813124182 0 0 0
3417 1310 2 0.59 35.34617233107918 18.502056160089992 12.796378530628546 0 0 0
3416 1310 1 -1.18 36.205330390963404 18.801052173292167 12.495704608445148 0 0 0
3418 1310 2 0.59 36.26957614640941 19.703132812316824 12.812457569248718 0 0 0

Velocities

8342 5.722046221381435e-11 -2.1921832690628834e-09 -9.735906774311173e-10
8343 -6.766348233120524e-09 -3.688494811297308e-08 -1.849898006529438e-08
8344 1.2499137772439838e-08 -4.5949261055138494e-08 -2.2057766420069777e-08
51 -1.209187941783379e-10 -2.440389275305444e-10 -4.611843964622252e-11
6917 -1.633473561663347e-09 -1.4741802978696874e-09 3.1140906382496216e-10
10241 8.281465775920983e-10 -3.394910445521623e-10 -5.118062068629644e-10
10242 5.348281043904024e-09 -1.4039208027966253e-08 -7.603285278896069e-09
10243 3.430263514994892e-08 4.133221904086129e-09 -1.0870416934358654e-08
11081 7.869030796793683e-10 -1.6368010332048046e-10 -5.136399148642566e-10
11082 1.3476696289642115e-08 7.162830564324076e-09 -1.5176494830780673e-08
11083 2.3458492811374854e-08 -5.994978480369676e-09 -5.750209873896008e-09
11231 -1.0228699226610695e-09 8.927402929250499e-10 8.893068829829268e-10
11232 -2.5723825876274324e-08 1.1585620306313509e-08 2.7468195247338942e-08
11233 -1.4403286257585153e-08 3.618085317986911e-08 1.2078381951428082e-08
6919 2.3141963828016807e-09 -6.522853505594145e-09 2.481464272020705e-08
6918 -5.8349888332637766e-08 -4.27616603088671e-08 -1.4461186215646e-08
4745 -1.6630019511764305e-09 -1.592538719825166e-09 2.7385801563683774e-10
4746 -1.7815478677922986e-08 -7.600675823090579e-09 -5.152610245872732e-09
4747 -4.154917138534025e-08 -4.6198460492473805e-08 1.4908446319438968e-08
3417 2.4069991351217325e-08 9.998617931469943e-08 1.6051133750229207e-08
3416 2.0653026625944633e-09 4.352380221917771e-09 6.414271008017828e-10
3418 6.50725338865433e-08 6.862963612517629e-08 4.948637859897341e-09

Bonds

1 1 8342 8343
2 1 8342 8344
3 1 6917 6918
4 1 6917 6919
5 1 10241 10242
6 1 10241 10243
7 1 11081 11082
8 1 11081 11083
9 1 11231 11232
10 1 11231 11233
11 1 4745 4746
12 1 4745 4747
13 1 3416 3417
14 1 3416 3418

Angles

1 1 8343 8342 8344
2 1 6918 6917 6919
3 1 10242 10241 10243
4 1 11082 11081 11083
5 1 11232 11231 11233
6 1 4746 4745 4747
7 1 3417 3416 3418
