LAMMPS data file via write_data, version 23 Jun 2022, timestep = 33910

22 atoms
3 atom types
14 bonds
1 bond types
7 angles
1 angle types

0 49.33432626528822 xlo xhi
0 49.33432626528822 ylo yhi
0 49.33432626528822 zlo zhi

Masses

1 15.9994
2 1.00794
3 55.843

Atoms # full

3416 1310 1 -1.18 36.60123493242185 18.214777096929193 11.911383044525374 0 0 0
8342 2952 1 -1.18 36.64347742331869 15.678606825394931 11.290364605676988 0 0 0
8343 2952 2 0.59 36.43278808199617 15.260988358820704 12.12728508827104 0 0 0
8344 2952 2 0.59 36.03726314071403 15.279426084489115 10.663823268133156 0 0 0
51 51 3 3 38.09682406189547 17.095995150274497 10.8213656524726 0 0 0
10241 3585 1 -1.18 37.91927775528805 16.17250798639426 8.95920950626465 0 0 0
10242 3585 2 0.59 37.513945099728616 16.525883558108273 8.165422830445522 0 0 0
10243 3585 2 0.59 38.271417115951564 15.322190777623605 8.690581947386828 0 0 0
11081 3865 1 -1.18 39.28461303679533 15.361661319801891 11.120652065291932 0 0 0
11082 3865 2 0.59 40.237232555858064 15.280349881033528 11.049812322231697 0 0 0
11083 3865 2 0.59 38.984107920494324 14.477996123145443 11.339659391858907 0 0 0
11231 3915 1 -1.18 39.94134858397028 17.794546068962987 10.146181151578153 0 0 0
11233 3915 2 0.59 40.3875598195909 17.59329681135614 9.32178369800183 0 0 0
11232 3915 2 0.59 40.54223679519367 18.382896447583853 10.606744542117909 0 0 0
3418 1310 2 0.59 36.49917272266547 19.163952502137626 11.99914423217239 0 0 0
6919 2477 2 0.59 36.660750159621465 19.070152177446676 9.401183765263635 0 0 0
6917 2477 1 -1.18 37.53123774621826 18.701692624431676 9.56135021068062 0 0 0
6918 2477 2 0.59 38.12373573330276 19.254808169775117 9.049284035796912 0 0 0
3417 1310 2 0.59 35.844671838368 17.848599847589274 12.372461657614904 0 0 0
4745 1753 1 -1.18 38.98822179809761 17.504363540960092 12.656599698528899 0 0 0
4746 1753 2 0.59 38.72105082824377 18.16431081406646 13.29873938410079 0 0 0
4747 1753 2 0.59 39.669845446099714 16.998339420834576 13.102148540301696 0 0 0

Velocities

3416 -1.060993261768047e-09 -1.6255041996289178e-10 -1.6778746390719607e-09
8342 1.0223572382914118e-09 -6.797167128156263e-10 1.7769815376768387e-09
8343 -1.6964529575476196e-09 2.8536772329757096e-08 4.331825926508395e-08
8344 3.946956698582028e-08 -5.0774646220136375e-08 3.119044229181235e-08
51 -1.2930652155547535e-11 -6.1776119056469555e-12 -6.343180557166069e-11
10241 -1.623396161106055e-09 -1.0352009760017307e-10 3.778433691632647e-10
10242 7.859330173815852e-08 4.200325544872167e-08 -2.7864438390350916e-08
10243 -1.4367910757562894e-07 -6.42066295827328e-08 4.939528623578216e-08
11081 8.075024993160447e-10 3.003652087664675e-10 -6.581158884670726e-10
11082 -4.3905430821420716e-09 -1.836732523881618e-08 -2.1541213509355536e-07
11083 5.075730001293374e-08 4.07038811039612e-08 1.8650875305443155e-07
11231 4.693058109374719e-10 -4.1444761040567874e-10 2.2854029091474726e-10
11233 -4.536746941647364e-08 9.502543236594981e-08 -4.9774597611980306e-08
11232 5.625908693767202e-08 -9.780934373428062e-08 5.6502077730549625e-08
3418 2.2629483552335103e-08 -2.9689589319519416e-09 2.3593726200889436e-08
6919 1.8293827153574848e-08 -2.5498986599280523e-08 -5.0649023758177944e-08
6917 1.6422021269991097e-09 8.116357261338986e-10 -2.888770762554109e-10
6918 3.626398844423215e-08 7.945575638538447e-08 7.915247498194513e-08
3417 -7.788068143149653e-08 6.351360895961909e-09 -1.196851324541646e-07
4745 -1.1459314146443965e-09 -1.5527364171556032e-10 1.0061090451732e-11
4746 -8.921020498174498e-08 -8.180620594980474e-08 5.2153708595318325e-08
4747 5.8911615781710135e-08 5.610291934990924e-08 -5.1241329829882864e-08

Bonds

1 1 3416 3417
2 1 3416 3418
3 1 8342 8343
4 1 8342 8344
5 1 10241 10242
6 1 10241 10243
7 1 11081 11082
8 1 11081 11083
9 1 11231 11232
10 1 11231 11233
11 1 6917 6918
12 1 6917 6919
13 1 4745 4746
14 1 4745 4747

Angles

1 1 3417 3416 3418
2 1 8343 8342 8344
3 1 10242 10241 10243
4 1 11082 11081 11083
5 1 11232 11231 11233
6 1 6918 6917 6919
7 1 4746 4745 4747
